<?xml version="1.0" encoding="UTF-8"?>

<!-- generated on 2026-01-03 20:00:13 by Eclipse SUMO GUI Version 1.23.0
<sumoConfiguration xmlns:xsi="http://www.w3.org/2001/XMLSchema-instance" xsi:noNamespaceSchemaLocation="http://sumo.dlr.de/xsd/sumoConfiguration.xsd">

    <input>
        <net-file value="scenarios/ev_test_grid/ev_test.net.xml"/>
        <route-files value="scenarios/ev_test_grid/routes_100_0.rou.xml"/>
        <additional-files value="scenarios/ev_test_grid/ev_test.add.xml"/>
    </input>

    <output>
        <tripinfo-output value="data/logs/trip_info.out"/>
    </output>

    <report>
        <verbose value="true"/>
        <log value="data/logs/sumo.log"/>
    </report>

    <traci_server>
        <remote-port value="62615"/>
    </traci_server>

    <gui_only>
        <gui-settings-file value="scenarios/real_world.view.xml"/>
        <delay value="0"/>
    </gui_only>

</sumoConfiguration>
-->

<tripinfos xmlns:xsi="http://www.w3.org/2001/XMLSchema-instance" xsi:noNamespaceSchemaLocation="http://sumo.dlr.de/xsd/tripinfo_file.xsd">
    <tripinfo id="veh_1" depart="1.00" departLane="-E41_0" departPos="5.10" departSpeed="0.00" departDelay="0.00" arrival="1865.00" arrivalLane="-E35_0" arrivalPos="54.26" arrivalSpeed="12.66" duration="1864.00" routeLength="513.36" waitingTime="0.00" waitingCount="0" stopTime="1800.00" timeLoss="20.13" rerouteNo="2" devices="tripinfo_veh_1 battery_veh_1" vType="electric_vehicle" speedFactor="0.94" vaporized="">
        <battery depleted="0" actualBatteryCapacity="13364.28" totalEnergyConsumed="164.48" totalEnergyRegenerated="107.79"/>
    </tripinfo>
    <tripinfo id="veh_9" depart="9.00" departLane="E44_0" departPos="5.10" departSpeed="0.00" departDelay="0.00" arrival="1877.00" arrivalLane="-E10_0" arrivalPos="54.09" arrivalSpeed="11.12" duration="1868.00" routeLength="521.64" waitingTime="3.00" waitingCount="1" stopTime="1800.00" timeLoss="21.15" rerouteNo="2" devices="tripinfo_veh_9 battery_veh_9" vType="electric_vehicle" speedFactor="0.86" vaporized="">
        <battery depleted="0" actualBatteryCapacity="13371.35" totalEnergyConsumed="142.78" totalEnergyRegenerated="93.16"/>
    </tripinfo>
    <tripinfo id="veh_0" depart="0.00" departLane="E23_0" departPos="5.10" departSpeed="0.00" departDelay="0.00" arrival="1878.00" arrivalLane="-E12_0" arrivalPos="55.73" arrivalSpeed="14.40" duration="1878.00" routeLength="820.65" waitingTime="0.00" waitingCount="0" stopTime="1800.00" timeLoss="20.70" rerouteNo="2" devices="tripinfo_veh_0 battery_veh_0" vType="electric_vehicle" speedFactor="1.06" vaporized="">
        <battery depleted="0" actualBatteryCapacity="13335.79" totalEnergyConsumed="209.04" totalEnergyRegenerated="123.86"/>
    </tripinfo>
    <tripinfo id="veh_2" depart="2.00" departLane="E34_0" departPos="5.10" departSpeed="0.00" departDelay="0.00" arrival="1882.00" arrivalLane="E27_0" arrivalPos="77.12" arrivalSpeed="12.06" duration="1880.00" routeLength="639.31" waitingTime="2.00" waitingCount="1" stopTime="1800.00" timeLoss="29.77" rerouteNo="2" devices="tripinfo_veh_2 battery_veh_2" vType="electric_vehicle" speedFactor="1.01" vaporized="">
        <battery depleted="0" actualBatteryCapacity="13356.48" totalEnergyConsumed="209.68" totalEnergyRegenerated="145.18"/>
    </tripinfo>
    <tripinfo id="veh_4" depart="4.00" departLane="-E58_0" departPos="5.10" departSpeed="0.00" departDelay="0.00" arrival="1888.00" arrivalLane="-E13_0" arrivalPos="77.34" arrivalSpeed="14.00" duration="1884.00" routeLength="687.43" waitingTime="2.00" waitingCount="1" stopTime="1800.00" timeLoss="30.36" rerouteNo="2" devices="tripinfo_veh_4 battery_veh_4" vType="electric_vehicle" speedFactor="1.03" vaporized="">
        <battery depleted="0" actualBatteryCapacity="13345.35" totalEnergyConsumed="237.68" totalEnergyRegenerated="162.06"/>
    </tripinfo>
    <tripinfo id="veh_5" depart="5.00" departLane="-E35_0" departPos="5.10" departSpeed="0.00" departDelay="0.00" arrival="1891.00" arrivalLane="-E8_0" arrivalPos="57.51" arrivalSpeed="10.63" duration="1886.00" routeLength="671.62" waitingTime="1.00" waitingCount="1" stopTime="1800.00" timeLoss="21.91" rerouteNo="2" devices="tripinfo_veh_5 battery_veh_5" vType="electric_vehicle" speedFactor="0.83" vaporized="">
        <battery depleted="0" actualBatteryCapacity="13370.88" totalEnergyConsumed="155.06" totalEnergyRegenerated="99.16"/>
    </tripinfo>
    <tripinfo id="veh_3" depart="3.00" departLane="E54_0" departPos="5.10" departSpeed="0.00" departDelay="0.00" arrival="1895.00" arrivalLane="-E19_0" arrivalPos="53.94" arrivalSpeed="14.01" duration="1892.00" routeLength="890.43" waitingTime="0.00" waitingCount="0" stopTime="1800.00" timeLoss="29.53" rerouteNo="2" devices="tripinfo_veh_3 battery_veh_3" vType="electric_vehicle" speedFactor="1.08" vaporized="">
        <battery depleted="0" actualBatteryCapacity="13329.22" totalEnergyConsumed="293.57" totalEnergyRegenerated="201.82"/>
    </tripinfo>
    <tripinfo id="veh_8" depart="8.00" departLane="-E35_0" departPos="5.10" departSpeed="0.00" departDelay="0.00" arrival="1898.00" arrivalLane="E17_0" arrivalPos="78.55" arrivalSpeed="11.90" duration="1890.00" routeLength="801.98" waitingTime="1.00" waitingCount="1" stopTime="1800.00" timeLoss="24.15" rerouteNo="2" devices="tripinfo_veh_8 battery_veh_8" vType="electric_vehicle" speedFactor="0.94" vaporized="">
        <battery depleted="0" actualBatteryCapacity="13355.32" totalEnergyConsumed="203.22" totalEnergyRegenerated="131.76"/>
    </tripinfo>
    <tripinfo id="veh_6" depart="6.00" departLane="-E13_0" departPos="5.10" departSpeed="0.00" departDelay="0.00" arrival="1901.00" arrivalLane="-E32_0" arrivalPos="52.95" arrivalSpeed="13.84" duration="1895.00" routeLength="798.18" waitingTime="1.00" waitingCount="1" stopTime="1800.00" timeLoss="33.58" rerouteNo="2" devices="tripinfo_veh_6 battery_veh_6" vType="electric_vehicle" speedFactor="1.05" vaporized="">
        <battery depleted="0" actualBatteryCapacity="13344.67" totalEnergyConsumed="257.60" totalEnergyRegenerated="175.49"/>
    </tripinfo>
    <tripinfo id="veh_7" depart="7.00" departLane="E24_0" departPos="5.10" departSpeed="0.00" departDelay="0.00" arrival="1911.00" arrivalLane="E12_0" arrivalPos="55.73" arrivalSpeed="11.50" duration="1904.00" routeLength="987.02" waitingTime="0.00" waitingCount="0" stopTime="1800.00" timeLoss="19.87" rerouteNo="2" devices="tripinfo_veh_7 battery_veh_7" vType="electric_vehicle" speedFactor="0.89" vaporized="">
        <battery depleted="0" actualBatteryCapacity="13343.77" totalEnergyConsumed="187.77" totalEnergyRegenerated="110.56"/>
    </tripinfo>
</tripinfos>
