<?xml version="1.0" encoding="UTF-8"?>

<!-- generated on 2026-01-05 18:33:02 by Eclipse SUMO GUI Version 1.23.0
<sumoConfiguration xmlns:xsi="http://www.w3.org/2001/XMLSchema-instance" xsi:noNamespaceSchemaLocation="http://sumo.dlr.de/xsd/sumoConfiguration.xsd">

    <input>
        <net-file value="scenarios/ev_test_grid/ev_test.net.xml"/>
        <route-files value="scenarios/ev_test_grid/routes_100_0.rou.xml"/>
        <additional-files value="scenarios/ev_test_grid/ev_test.add.xml"/>
    </input>

    <output>
        <tripinfo-output value="data/logs/trip_info.out"/>
    </output>

    <report>
        <verbose value="true"/>
        <log value="data/logs/sumo.log"/>
    </report>

    <traci_server>
        <remote-port value="57702"/>
    </traci_server>

    <gui_only>
        <gui-settings-file value="scenarios/real_world.view.xml"/>
        <delay value="0"/>
    </gui_only>

</sumoConfiguration>
-->

<tripinfos xmlns:xsi="http://www.w3.org/2001/XMLSchema-instance" xsi:noNamespaceSchemaLocation="http://sumo.dlr.de/xsd/tripinfo_file.xsd">
    <tripinfo id="veh_1" depart="1.00" departLane="-E41_0" departPos="5.10" departSpeed="0.00" departDelay="0.00" arrival="25.00" arrivalLane="-E35_0" arrivalPos="54.26" arrivalSpeed="12.62" duration="24.00" routeLength="200.33" waitingTime="0.00" waitingCount="0" stopTime="0.00" timeLoss="7.32" rerouteNo="0" devices="tripinfo_veh_1 battery_veh_1" vType="electric_vehicle" speedFactor="0.94" vaporized="">
        <battery depleted="0" actualBatteryCapacity="17555.94" totalEnergyConsumed="73.35" totalEnergyRegenerated="36.30"/>
    </tripinfo>
    <tripinfo id="veh_5" depart="5.00" departLane="-E35_0" departPos="5.10" departSpeed="0.00" departDelay="0.00" arrival="50.00" arrivalLane="-E8_0" arrivalPos="57.51" arrivalSpeed="11.21" duration="45.00" routeLength="352.87" waitingTime="0.00" waitingCount="0" stopTime="0.00" timeLoss="10.66" rerouteNo="0" devices="tripinfo_veh_5 battery_veh_5" vType="electric_vehicle" speedFactor="0.83" vaporized="">
        <battery depleted="0" actualBatteryCapacity="19404.76" totalEnergyConsumed="93.85" totalEnergyRegenerated="54.03"/>
    </tripinfo>
    <tripinfo id="veh_4" depart="4.00" departLane="-E58_0" departPos="5.10" departSpeed="0.00" departDelay="0.00" arrival="51.00" arrivalLane="-E13_0" arrivalPos="77.34" arrivalSpeed="13.60" duration="47.00" routeLength="374.50" waitingTime="2.00" waitingCount="1" stopTime="0.00" timeLoss="16.52" rerouteNo="0" devices="tripinfo_veh_4 battery_veh_4" vType="electric_vehicle" speedFactor="1.03" vaporized="">
        <battery depleted="0" actualBatteryCapacity="17290.48" totalEnergyConsumed="133.55" totalEnergyRegenerated="80.10"/>
    </tripinfo>
    <tripinfo id="veh_8" depart="8.00" departLane="-E35_0" departPos="5.10" departSpeed="0.00" departDelay="0.00" arrival="60.00" arrivalLane="E17_0" arrivalPos="78.55" arrivalSpeed="12.68" duration="52.00" routeLength="510.82" waitingTime="0.00" waitingCount="0" stopTime="0.00" timeLoss="9.93" rerouteNo="0" devices="tripinfo_veh_8 battery_veh_8" vType="electric_vehicle" speedFactor="0.94" vaporized="">
        <battery depleted="0" actualBatteryCapacity="19489.99" totalEnergyConsumed="107.60" totalEnergyRegenerated="52.14"/>
    </tripinfo>
    <tripinfo id="veh_6" depart="6.00" departLane="-E13_0" departPos="5.10" departSpeed="0.00" departDelay="0.00" arrival="61.00" arrivalLane="-E32_0" arrivalPos="52.95" arrivalSpeed="14.41" duration="55.00" routeLength="507.88" waitingTime="0.00" waitingCount="0" stopTime="0.00" timeLoss="17.16" rerouteNo="0" devices="tripinfo_veh_6 battery_veh_6" vType="electric_vehicle" speedFactor="1.05" vaporized="">
        <battery depleted="0" actualBatteryCapacity="16244.17" totalEnergyConsumed="165.30" totalEnergyRegenerated="99.26"/>
    </tripinfo>
    <tripinfo id="veh_0" depart="0.00" departLane="E23_0" departPos="5.10" departSpeed="0.00" departDelay="0.00" arrival="87.00" arrivalLane="-E12_0" arrivalPos="55.73" arrivalSpeed="14.52" duration="87.00" routeLength="804.10" waitingTime="0.00" waitingCount="0" stopTime="0.00" timeLoss="26.54" rerouteNo="0" devices="tripinfo_veh_0 battery_veh_0" vType="electric_vehicle" speedFactor="1.06" vaporized="">
        <battery depleted="0" actualBatteryCapacity="10179.27" totalEnergyConsumed="299.92" totalEnergyRegenerated="211.17"/>
    </tripinfo>
    <tripinfo id="veh_7" depart="7.00" departLane="E24_0" departPos="5.10" departSpeed="0.00" departDelay="0.00" arrival="89.00" arrivalLane="E12_0" arrivalPos="55.73" arrivalSpeed="11.83" duration="82.00" routeLength="657.39" waitingTime="0.00" waitingCount="0" stopTime="0.00" timeLoss="23.31" rerouteNo="0" devices="tripinfo_veh_7 battery_veh_7" vType="electric_vehicle" speedFactor="0.89" vaporized="">
        <battery depleted="0" actualBatteryCapacity="9575.31" totalEnergyConsumed="185.75" totalEnergyRegenerated="123.63"/>
    </tripinfo>
    <tripinfo id="veh_9" depart="9.00" departLane="E44_0" departPos="5.10" departSpeed="0.00" departDelay="0.00" arrival="1875.00" arrivalLane="-E10_0" arrivalPos="54.09" arrivalSpeed="11.63" duration="1866.00" routeLength="521.64" waitingTime="0.00" waitingCount="0" stopTime="1800.00" timeLoss="18.85" rerouteNo="2" devices="tripinfo_veh_9 battery_veh_9" vType="electric_vehicle" speedFactor="0.86" vaporized="">
        <battery depleted="0" actualBatteryCapacity="17868.99" totalEnergyConsumed="150.29" totalEnergyRegenerated="98.31"/>
    </tripinfo>
    <tripinfo id="veh_2" depart="2.00" departLane="E34_0" departPos="5.10" departSpeed="0.00" departDelay="0.00" arrival="1876.00" arrivalLane="E27_0" arrivalPos="77.12" arrivalSpeed="13.40" duration="1874.00" routeLength="639.31" waitingTime="0.00" waitingCount="0" stopTime="1800.00" timeLoss="23.03" rerouteNo="2" devices="tripinfo_veh_2 battery_veh_2" vType="electric_vehicle" speedFactor="1.01" vaporized="">
        <battery depleted="0" actualBatteryCapacity="17852.67" totalEnergyConsumed="194.66" totalEnergyRegenerated="126.36"/>
    </tripinfo>
    <tripinfo id="veh_3" depart="3.00" departLane="E54_0" departPos="5.10" departSpeed="0.00" departDelay="0.00" arrival="1897.00" arrivalLane="-E19_0" arrivalPos="53.94" arrivalSpeed="14.11" duration="1894.00" routeLength="890.43" waitingTime="0.00" waitingCount="0" stopTime="1800.00" timeLoss="32.43" rerouteNo="2" devices="tripinfo_veh_3 battery_veh_3" vType="electric_vehicle" speedFactor="1.08" vaporized="">
        <battery depleted="0" actualBatteryCapacity="17829.53" totalEnergyConsumed="296.83" totalEnergyRegenerated="205.39"/>
    </tripinfo>
</tripinfos>
