<?xml version="1.0" encoding="UTF-8"?>

<!-- generated on 2025-10-08 10:13:07 by Eclipse SUMO GUI Version 1.23.0
<sumoConfiguration xmlns:xsi="http://www.w3.org/2001/XMLSchema-instance" xsi:noNamespaceSchemaLocation="http://sumo.dlr.de/xsd/sumoConfiguration.xsd">

    <input>
        <net-file value="ev_test_grid/ev_test.net.xml"/>
        <route-files value="ev_test_grid/routes_100_0.rou.xml"/>
        <additional-files value="ev_test_grid/ev_test.add.xml"/>
    </input>

    <output>
        <tripinfo-output value="data/trip_info.out"/>
    </output>

    <report>
        <verbose value="true"/>
        <log value="./data/sumo.log"/>
    </report>

    <traci_server>
        <remote-port value="62294"/>
    </traci_server>

    <gui_only>
        <gui-settings-file value="ev_test_grid/ev_test.view.xml"/>
        <delay value="0"/>
    </gui_only>

</sumoConfiguration>
-->

<tripinfos xmlns:xsi="http://www.w3.org/2001/XMLSchema-instance" xsi:noNamespaceSchemaLocation="http://sumo.dlr.de/xsd/tripinfo_file.xsd">
</tripinfos>
