<?xml version="1.0" encoding="UTF-8"?>

<!-- generated on 2025-11-22 17:29:07 by Eclipse SUMO GUI Version 1.23.0
<sumoConfiguration xmlns:xsi="http://www.w3.org/2001/XMLSchema-instance" xsi:noNamespaceSchemaLocation="http://sumo.dlr.de/xsd/sumoConfiguration.xsd">

    <input>
        <net-file value="scenarios/ev_test_grid/ev_test.net.xml"/>
        <route-files value="scenarios/ev_test_grid/routes_100_0.rou.xml"/>
        <additional-files value="scenarios/ev_test_grid/ev_test.add.xml"/>
    </input>

    <output>
        <tripinfo-output value="data/trip_info.out"/>
    </output>

    <report>
        <verbose value="true"/>
        <log value="./data/sumo.log"/>
    </report>

    <traci_server>
        <remote-port value="62194"/>
    </traci_server>

    <gui_only>
        <gui-settings-file value="scenarios/real_world.view.xml"/>
        <delay value="0"/>
    </gui_only>

</sumoConfiguration>
-->

<tripinfos xmlns:xsi="http://www.w3.org/2001/XMLSchema-instance" xsi:noNamespaceSchemaLocation="http://sumo.dlr.de/xsd/tripinfo_file.xsd">
    <tripinfo id="veh_2" depart="2.00" departLane="E34_0" departPos="5.10" departSpeed="0.00" departDelay="0.00" arrival="37.00" arrivalLane="E55_0" arrivalPos="73.14" arrivalSpeed="13.88" duration="35.00" routeLength="135.12" waitingTime="16.00" waitingCount="1" stopTime="0.00" timeLoss="24.02" rerouteNo="1" devices="tripinfo_veh_2 battery_veh_2" vType="electric_vehicle" speedFactor="1.01" vaporized="">
        <battery depleted="0" actualBatteryCapacity="2960.93" totalEnergyConsumed="64.43" totalEnergyRegenerated="25.37"/>
    </tripinfo>
</tripinfos>
