<?xml version="1.0" encoding="UTF-8"?>

<!-- generated on 2025-10-10 15:47:55 by Eclipse SUMO GUI Version 1.23.0
<sumoConfiguration xmlns:xsi="http://www.w3.org/2001/XMLSchema-instance" xsi:noNamespaceSchemaLocation="http://sumo.dlr.de/xsd/sumoConfiguration.xsd">

    <input>
        <net-file value="scenarios/TAPASCologne-0.32.0/cologne.net.xml"/>
        <route-files value="scenarios/TAPASCologne-0.32.0/routes_100_0.rou.xml"/>
        <additional-files value="scenarios/TAPASCologne-0.32.0/sim_cologne_cs.add.xml"/>
    </input>

    <output>
        <tripinfo-output value="data/trip_info.out"/>
    </output>

    <report>
        <log value="./data/sumo.log"/>
    </report>

    <traci_server>
        <remote-port value="52619"/>
    </traci_server>

    <gui_only>
        <gui-settings-file value="scenarios/real_world.view.xml"/>
        <delay value="0"/>
    </gui_only>

</sumoConfiguration>
-->

<tripinfos xmlns:xsi="http://www.w3.org/2001/XMLSchema-instance" xsi:noNamespaceSchemaLocation="http://sumo.dlr.de/xsd/tripinfo_file.xsd">
</tripinfos>
