<?xml version="1.0" encoding="UTF-8"?>

<!-- generated on 2026-03-02 10:42:44 by Eclipse SUMO GUI Version 1.23.0
<sumoConfiguration xmlns:xsi="http://www.w3.org/2001/XMLSchema-instance" xsi:noNamespaceSchemaLocation="http://sumo.dlr.de/xsd/sumoConfiguration.xsd">

    <input>
        <net-file value="C:\Program Files (x86)\Eclipse\Sumo\tools\2026-03-02-10-39-11\osm.net.xml.gz"/>
        <route-files value="C:\Program Files (x86)\Eclipse\Sumo\tools\2026-03-02-10-39-11\osm.passenger.trips.xml"/>
        <additional-files value="C:\Program Files (x86)\Eclipse\Sumo\tools\2026-03-02-10-39-11\osm.poly.xml.gz,C:\Program Files (x86)\Eclipse\Sumo\tools\2026-03-02-10-39-11\output.add.xml"/>
    </input>

    <output>
        <tripinfo-output value="C:\Program Files (x86)\Eclipse\Sumo\tools\2026-03-02-10-39-11\tripinfos.xml"/>
        <statistic-output value="C:\Program Files (x86)\Eclipse\Sumo\tools\2026-03-02-10-39-11\stats.xml"/>
    </output>

    <processing>
        <ignore-route-errors value="true"/>
        <tls.actuated.jam-threshold value="30"/>
    </processing>

    <routing>
        <device.rerouting.adaptation-steps value="18"/>
        <device.rerouting.adaptation-interval value="10"/>
    </routing>

    <report>
        <verbose value="true"/>
        <duration-log.statistics value="true"/>
        <no-step-log value="true"/>
    </report>

    <gui_only>
        <gui-settings-file value="C:\Program Files (x86)\Eclipse\Sumo\tools\2026-03-02-10-39-11\osm.view.xml"/>
    </gui_only>

</sumoConfiguration>
-->

<tripinfos xmlns:xsi="http://www.w3.org/2001/XMLSchema-instance" xsi:noNamespaceSchemaLocation="http://sumo.dlr.de/xsd/tripinfo_file.xsd">
    <tripinfo id="veh168" depart="42.00" departLane="222586253_0" departPos="0.96" departSpeed="0.00" departDelay="0.67" arrival="83.00" arrivalLane="936876470#2_1" arrivalPos="13.23" arrivalSpeed="21.24" duration="41.00" routeLength="551.24" waitingTime="0.00" waitingCount="0" stopTime="0.00" timeLoss="14.36" rerouteNo="1" devices="tripinfo_veh168 routing_veh168" vType="veh_passenger" speedFactor="0.98" vaporized=""/>
</tripinfos>
